ITEM: TIMESTEP
500
ITEM: NUMBER OF ATOMS
4000
ITEM: BOX BOUNDS pp pp pp
0.0000000000000000e+00 4.0799999999999997e+01
0.0000000000000000e+00 4.0799999999999997e+01
0.0000000000000000e+00 4.0799999999999997e+01
ITEM: ATOMS id type x y z c_ke_atom mass
5 1 -0.000317987 0.00484899 -0.0356251 0.00112474 196.196
7 1 2.10121 2.14251 0.0151629 0.00195877 196.196
6 1 2.00658 0.0667678 1.96195 0.0013523 196.196
2 1 -0.0258493 2.08526 2.01327 0.00522969 196.196
11 1 4.08671 0.0192563 -0.0779958 5.83451e-05 196.196
16 1 6.17052 2.10138 -0.01537 0.00804594 196.196
15 1 6.13595 0.0503682 1.97319 0.00362418 196.196
12 1 4.09351 2.02683 2.01022 0.000438537 196.196
3 1 -0.000302814 4.09947 0.000122015 0.000918186 196.196
94 1 1.94855 6.24658 0.014742 0.00323522 196.196
9 1 2.0431 4.17278 2.02872 0.00523065 196.196
91 1 -0.079175 6.125 1.99491 0.00324046 196.196
13 1 4.04406 4.17551 0.0152281 0.00108185 196.196
100 1 6.14655 6.17078 0.0461007 0.00262568 196.196
18 1 6.10293 4.13332 1.98169 0.00591335 196.196
97 1 4.0481 6.15272 2.03038 0.00247168 196.196
4 1 -0.00227098 0.060241 4.05022 0.00206417 196.196
8 1 2.0202 2.14219 4.04655 0.00276648 196.196
604 1 2.09739 0.0763767 6.00752 0.00049094 196.196
601 1 -0.00484783 2.06295 6.07473 0.00155474 196.196
10 1 4.08317 -0.00307678 3.99914 0.00102756 196.196
17 1 6.14217 2.05704 4.00944 0.00211647 196.196
610 1 6.12923 0.0453989 6.05308 0.00728943 196.196
608 1 4.13522 2.08284 6.0478 0.00128433 196.196
1 1 -0.0161588 4.15105 4.07326 0.00151493 196.196
95 1 2.02806 6.1986 4.05382 0.00204879 196.196
606 1 1.98956 4.16633 6.09415 0.00410087 196.196
661 1 -0.0677049 6.10307 6.10925 0.000605149 196.196
14 1 4.06299 4.19095 4.03147 0.0047408 196.196
101 1 6.16122 6.12081 4.05552 0.00267528 196.196
612 1 6.04492 4.06841 6.11985 0.00220869 196.196
665 1 4.03479 6.1764 6.07952 0.000869526 196.196
20 1 8.11999 -0.0584108 -0.0212197 0.0086889 196.196
25 1 10.1541 2.03658 -0.031488 0.00591702 196.196
24 1 10.1692 0.0715265 2.00547 0.00257836 196.196
21 1 8.1908 2.04619 2.05956 0.00631574 196.196
29 1 12.2042 -0.00323245 0.0205987 0.0012059 196.196
30 1 12.3092 2.04597 2.00922 0.00632295 196.196
22 1 8.11304 4.12758 -0.0526803 0.000110921 196.196
106 1 10.1554 6.0897 -0.0755152 0.00112965 196.196
27 1 10.1792 4.04714 1.96341 2.71394e-05 196.196
103 1 8.21995 6.10053 2.05645 0.000384136 196.196
31 1 12.2916 4.04671 -0.0475866 0.00186468 196.196
109 1 12.2778 6.13938 2.06273 0.00233152 196.196
19 1 8.1398 -0.0190842 4.09804 0.00316215 196.196
26 1 10.2578 2.04425 4.07473 0.000502034 196.196
616 1 10.1963 0.053258 6.18002 0.00170409 196.196
614 1 8.18713 2.0727 6.05912 0.00676576 196.196
28 1 12.2269 0.0290384 4.12043 0.00114112 196.196
620 1 12.3348 2.07495 6.17354 0.00149397 196.196
23 1 8.17112 4.10997 4.09108 0.000288379 196.196
107 1 10.2108 6.09915 4.06114 0.00105933 196.196
618 1 10.236 4.05698 6.17624 0.0090734 196.196
669 1 8.1527 6.14309 6.15024 0.00388671 196.196
32 1 12.2358 4.09185 4.06966 0.00415844 196.196
673 1 12.2615 6.07674 6.14921 0.00084975 196.196
34 1 14.2714 2.02969 -0.0725828 0.00335448 196.196
33 1 14.2685 0.0736945 2.02795 0.000755337 196.196
38 1 16.2992 0.00384592 -0.0132886 0.00220268 196.196
43 1 18.3258 1.99941 -0.0132422 0.0031096 196.196
42 1 18.3428 0.0188632 2.11328 0.00142821 196.196
39 1 16.3353 2.05968 2.0668 0.00106532 196.196
112 1 14.2315 6.04676 -0.0340299 0.00134203 196.196
36 1 14.3562 4.11362 2.06212 0.00511431 196.196
40 1 16.3181 4.07514 0.0251079 0.00207324 196.196
118 1 18.3813 6.03953 -0.0191154 0.00327655 196.196
45 1 18.3522 4.04446 2.02124 0.00636001 196.196
115 1 16.2975 6.08266 2.02742 0.000828317 196.196
35 1 14.2807 2.05697 4.1391 0.00179791 196.196
622 1 14.3802 -0.0165469 6.18808 0.00185448 196.196
37 1 16.3353 0.0242848 4.14036 0.00276533 196.196
44 1 18.3559 2.0328 4.10278 0.00526498 196.196
628 1 18.3434 -0.00639942 6.19163 0.00126566 196.196
626 1 16.3192 2.02611 6.21439 0.00067217 196.196
113 1 14.2744 6.11995 4.11292 0.0014111 196.196
624 1 14.3487 4.12076 6.15583 0.00302131 196.196
41 1 16.4073 4.05504 4.10339 0.00198165 196.196
119 1 18.3846 6.13231 4.11423 0.00133626 196.196
630 1 18.3853 4.09083 6.1623 0.00161571 196.196
677 1 16.349 6.08021 6.1343 0.0008647 196.196
47 1 20.3404 -0.0586426 -0.000708725 0.000363254 196.196
52 1 22.4343 2.01526 0.0341594 0.00508252 196.196
51 1 22.4456 -0.0335055 2.0697 0.000802917 196.196
48 1 20.4002 2.00666 2.05301 0.000152627 196.196
56 1 24.4716 -0.0768532 0.0404272 0.00137005 196.196
61 1 26.5869 2.01623 0.062855 0.00461671 196.196
60 1 26.5668 -0.0549274 2.12805 0.000555587 196.196
57 1 24.504 1.97484 2.06997 0.00561421 196.196
49 1 20.3308 4.0352 -0.0275125 0.00281655 196.196
124 1 22.4497 6.13929 0.029988 0.00186129 196.196
54 1 22.4493 4.05645 2.00693 0.00489512 196.196
121 1 20.3996 6.07636 2.0599 0.00259852 196.196
58 1 24.5051 4.08252 -0.0225024 0.000144523 196.196
130 1 26.4855 6.13232 0.0370213 0.00772803 196.196
63 1 26.5499 4.0986 2.06037 0.00516596 196.196
127 1 24.4763 6.17181 2.06425 0.00460694 196.196
46 1 20.3759 -0.011039 4.11105 0.00665693 196.196
53 1 22.4398 2.0526 4.09226 0.00630831 196.196
634 1 22.4156 -0.000541859 6.05896 0.00535656 196.196
632 1 20.3385 1.9988 6.1085 0.00339371 196.196
55 1 24.5165 -0.0199971 4.10114 0.000634888 196.196
62 1 26.5469 1.9674 4.08733 0.00276459 196.196
640 1 26.5715 -0.0201912 6.1405 0.00374416 196.196
638 1 24.453 2.10639 6.11208 0.00244537 196.196
50 1 20.3552 4.03647 4.06705 0.00136798 196.196
125 1 22.4063 6.14101 4.06309 0.0020757 196.196
636 1 22.4204 4.07367 6.06246 0.00087025 196.196
681 1 20.4203 6.05527 6.17616 0.00651753 196.196
59 1 24.4799 4.10958 4.01632 0.00233265 196.196
131 1 26.5111 6.14197 4.06398 0.000730442 196.196
642 1 26.4789 4.09345 6.07185 0.00244294 196.196
685 1 24.4518 6.18826 6.14818 0.00297472 196.196
65 1 28.5394 -0.0629454 -0.0375813 0.000829285 196.196
70 1 30.6275 2.06914 -0.00627013 0.00274704 196.196
69 1 30.5755 0.0263358 2.05954 0.00717706 196.196
66 1 28.6223 2.09864 2.03901 0.00155639 196.196
74 1 32.6298 0.0275594 -0.0188291 0.00181765 196.196
75 1 32.6198 2.03405 2.04279 0.00138506 196.196
67 1 28.4907 4.08609 -0.0467831 0.0010419 196.196
136 1 30.5623 6.08955 -0.0393793 0.00158257 196.196
72 1 30.5569 4.13709 2.05249 0.00223503 196.196
133 1 28.5511 6.19148 2.03512 0.00277868 196.196
76 1 32.6047 4.11003 -0.0218074 0.00322451 196.196
139 1 32.6809 6.11925 2.01314 0.00370103 196.196
64 1 28.5854 0.0135942 4.11336 0.00179589 196.196
71 1 30.5955 2.0407 4.06706 0.00613692 196.196
646 1 30.5922 0.00603852 6.13735 0.00177958 196.196
644 1 28.5612 2.07018 6.13152 0.00139258 196.196
73 1 32.6441 0.0304148 4.12467 0.00394366 196.196
650 1 32.635 2.08793 6.09446 0.00548718 196.196
68 1 28.5228 4.12519 4.10945 0.00519725 196.196
137 1 30.6102 6.11331 4.09286 0.00475924 196.196
648 1 30.5561 4.0547 6.10789 0.00161721 196.196
689 1 28.5699 6.17018 6.15067 0.00136122 196.196
77 1 32.5934 4.11972 4.06721 0.0013429 196.196
693 1 32.6903 6.15451 6.10098 0.00296115 196.196
79 1 34.6818 2.06563 0.0200773 0.000245868 196.196
78 1 34.6439 0.0030353 2.00759 0.00289118 196.196
83 1 36.6674 0.0127445 -0.0180372 0.000586342 196.196
88 1 38.7255 1.98605 0.00364199 0.00515824 196.196
87 1 38.7587 0.00147986 2.05056 0.000930205 196.196
84 1 36.7231 1.98374 2.08164 0.00294167 196.196
142 1 34.7038 6.11259 -0.0754404 0.00287873 196.196
81 1 34.6019 4.07523 2.04807 0.00751428 196.196
85 1 36.6503 4.0501 -0.0295891 0.00372701 196.196
148 1 38.6622 6.1721 -0.00769752 0.00108296 196.196
90 1 38.7178 4.07596 1.97764 0.00179759 196.196
145 1 36.702 6.0461 1.99357 0.00404958 196.196
80 1 34.6963 2.06704 4.07796 0.00355672 196.196
652 1 34.7164 0.0755389 6.13736 0.00943964 196.196
82 1 36.6784 0.0060111 4.07734 0.00309197 196.196
89 1 38.7872 2.08653 4.10586 0.000740836 196.196
658 1 38.7811 0.0263351 6.14183 0.00589587 196.196
656 1 36.7525 2.04862 6.05495 0.00221318 196.196
143 1 34.6917 6.13141 4.07158 0.00134684 196.196
654 1 34.6434 4.07502 6.10289 0.00172962 196.196
86 1 36.7217 4.13821 4.03234 0.00902891 196.196
149 1 38.745 6.1357 4.08469 0.00237119 196.196
660 1 38.7253 4.12462 6.10786 0.00497769 196.196
697 1 36.6842 6.08978 6.11892 0.000973324 196.196
93 1 -0.0792406 8.22487 0.0253684 0.00130155 196.196
155 1 1.98942 10.1519 0.0201933 0.00162536 196.196
96 1 1.94147 8.22433 2.06179 0.00585947 196.196
152 1 -0.0923284 10.1993 2.02266 0.000752558 196.196
98 1 4.07423 8.12187 0.0264069 0.00256115 196.196
164 1 6.06903 10.1882 0.0208671 6.65791e-05 196.196
102 1 6.03936 8.13558 2.03327 0.00232637 196.196
160 1 3.99196 10.1833 2.09393 0.000184692 196.196
154 1 -0.0589855 12.2492 0.0309491 0.00354224 196.196
157 1 2.01105 12.2228 1.9773 0.00217577 196.196
161 1 4.0391 12.1863 -0.0141598 0.00180741 196.196
166 1 6.04498 12.1401 2.02678 0.00450162 196.196
92 1 -0.0901555 8.18943 4.03211 0.0058327 196.196
156 1 1.98555 10.2181 4.08707 0.00138656 196.196
664 1 1.94537 8.16701 6.10353 0.00342034 196.196
702 1 -0.00655591 10.2184 6.10334 0.00231362 196.196
99 1 3.99592 8.17721 4.04918 0.00163485 196.196
165 1 6.10344 10.1481 4.05266 0.00435389 196.196
668 1 6.06637 8.12582 6.08156 0.00315521 196.196
707 1 4.11243 10.199 6.11298 0.00629537 196.196
151 1 -0.0283958 12.2119 4.06702 0.00202628 196.196
705 1 2.01544 12.2389 6.10575 0.00151815 196.196
162 1 4.03445 12.2023 4.0894 0.00147019 196.196
711 1 6.06551 12.2126 6.08462 0.00140122 196.196
104 1 8.11921 8.19026 0.0396946 0.00190308 196.196
173 1 10.2086 10.1471 -0.00125999 0.00114437 196.196
108 1 10.251 8.12246 2.02611 0.0027868 196.196
169 1 8.15592 10.1931 2.07456 0.00323146 196.196
110 1 12.2226 8.09042 0.0582223 0.00100262 196.196
178 1 12.2276 10.1756 2.09523 0.00625312 196.196
170 1 8.15955 12.2003 0.0025335 0.000153652 196.196
175 1 10.2471 12.2773 2.00017 0.00136856 196.196
179 1 12.2542 12.1955 0.0163695 0.00121826 196.196
105 1 8.17426 8.21339 4.04409 0.00116655 196.196
174 1 10.1728 10.1781 4.06611 0.00450717 196.196
672 1 10.225 8.11574 6.1114 0.00104024 196.196
713 1 8.13935 10.1804 6.08386 0.0019221 196.196
111 1 12.2392 8.16437 4.10251 0.000405036 196.196
719 1 12.2656 10.2345 6.09912 0.00164211 196.196
171 1 8.16968 12.2809 4.01899 0.00258225 196.196
717 1 10.2279 12.1955 6.09936 0.00120816 196.196
180 1 12.2032 12.2742 4.07322 0.000897401 196.196
182 1 14.245 10.1381 0.0170439 0.000964706 196.196
114 1 14.3142 8.15986 1.9981 0.00213499 196.196
116 1 16.3448 8.14604 0.0215627 0.00179129 196.196
191 1 18.4001 10.1987 0.00801421 0.00580682 196.196
120 1 18.3705 8.15334 2.02462 0.000843352 196.196
187 1 16.3343 10.1928 2.08898 0.00647266 196.196
184 1 14.257 12.2272 2.04247 0.00533322 196.196
188 1 16.2945 12.2249 0.0438693 0.00360336 196.196
193 1 18.382 12.2743 2.01521 0.00176378 196.196
183 1 14.2208 10.1723 4.0711 0.00250194 196.196
676 1 14.2786 8.15396 6.11586 0.00277877 196.196
117 1 16.3221 8.08266 4.05665 0.00315392 196.196
192 1 18.3921 10.2729 4.11423 0.00182788 196.196
680 1 18.3423 8.13624 6.18694 0.00089704 196.196
725 1 16.3364 10.1709 6.09716 0.0100212 196.196
723 1 14.2817 12.2796 6.11672 0.00172341 196.196
189 1 16.2492 12.2696 4.0275 0.000615363 196.196
729 1 18.3059 12.341 6.08364 0.00043504 196.196
122 1 20.4622 8.14673 0.00264192 0.00546148 196.196
200 1 22.4621 10.2008 -0.0299391 0.00282292 196.196
126 1 22.4404 8.2269 2.03338 0.00225784 196.196
196 1 20.4026 10.1778 2.04258 0.00286605 196.196
128 1 24.5243 8.19398 -0.0341317 0.000663284 196.196
209 1 26.4568 10.2083 0.00940789 0.0042359 196.196
132 1 26.5127 8.1945 2.0658 0.00177982 196.196
205 1 24.4461 10.1917 2.10797 0.00338518 196.196
197 1 20.4011 12.3047 0.00258381 0.00258164 196.196
202 1 22.4414 12.2815 2.0147 0.00493041 196.196
206 1 24.442 12.2932 -0.0515827 0.00157086 196.196
211 1 26.4302 12.1962 2.03287 0.000170168 196.196
123 1 20.3646 8.16978 4.12564 0.00327885 196.196
201 1 22.4541 10.2546 4.1085 0.0018442 196.196
684 1 22.4362 8.1796 6.12086 0.00695163 196.196
731 1 20.4518 10.2516 6.16283 0.00678041 196.196
129 1 24.491 8.13469 4.1074 0.00160171 196.196
210 1 26.4974 10.2282 4.15197 0.00446232 196.196
688 1 26.4881 8.19655 6.14714 0.00089403 196.196
737 1 24.4722 10.2018 6.20617 0.00292501 196.196
198 1 20.3722 12.3425 4.07376 0.000296238 196.196
735 1 22.4535 12.3224 6.10512 0.0018132 196.196
207 1 24.5124 12.325 4.14129 0.0056177 196.196
741 1 26.5476 12.2367 6.20789 0.00148173 196.196
134 1 28.4992 8.18042 -0.0166506 0.009086 196.196
218 1 30.5845 10.1829 -0.0863374 0.00423404 196.196
138 1 30.5901 8.16432 2.01409 0.00430806 196.196
214 1 28.5195 10.1813 2.02965 0.00200995 196.196
140 1 32.5899 8.15173 -0.042178 0.00137293 196.196
223 1 32.5528 10.1536 2.04074 0.0037439 196.196
215 1 28.5513 12.2241 -0.0238047 0.00517999 196.196
220 1 30.5816 12.1838 2.05631 0.000362266 196.196
224 1 32.6854 12.2563 -0.00413348 0.000689258 196.196
135 1 28.5209 8.16499 4.09315 0.00414139 196.196
219 1 30.5608 10.1679 4.1408 0.00543104 196.196
692 1 30.5662 8.1723 6.18106 0.00132059 196.196
743 1 28.5604 10.2218 6.13252 0.00780876 196.196
141 1 32.5811 8.17131 4.08994 0.0043706 196.196
749 1 32.5973 10.1952 6.1502 0.000441832 196.196
216 1 28.5733 12.2182 4.10743 0.00423667 196.196
747 1 30.6098 12.1827 6.20539 0.00252176 196.196
225 1 32.6365 12.2238 4.05083 0.00299109 196.196
227 1 34.7112 10.2199 -0.0410696 0.00151379 196.196
144 1 34.6447 8.12472 1.96732 0.00157596 196.196
146 1 36.6629 8.23238 -0.00892168 0.000807382 196.196
236 1 38.6484 10.2324 -0.0345663 0.0056067 196.196
150 1 38.6804 8.20272 2.05909 0.000969184 196.196
232 1 36.6622 10.2441 2.06078 0.00163898 196.196
229 1 34.6595 12.2019 2.07923 0.00322615 196.196
233 1 36.6988 12.338 0.0124516 0.000877584 196.196
238 1 38.742 12.214 2.05288 0.00321754 196.196
228 1 34.6148 10.1345 4.06147 0.00199138 196.196
696 1 34.6197 8.20348 6.13363 0.00223471 196.196
147 1 36.6787 8.19197 4.0959 0.00139507 196.196
237 1 38.6819 10.2181 4.12399 0.0107162 196.196
700 1 38.7182 8.21559 6.12241 0.000559535 196.196
755 1 36.5791 10.2511 6.18566 0.00625187 196.196
753 1 34.5519 12.2365 6.12031 0.00561019 196.196
234 1 36.6397 12.2395 4.05212 0.00277687 196.196
759 1 38.7285 12.2447 6.10011 0.00578111 196.196
158 1 2.05815 14.3047 0.0280387 0.00318017 196.196
153 1 0.00175261 14.266 2.12969 0.00439069 196.196
167 1 6.09042 14.2735 -0.0205972 0.000444861 196.196
163 1 4.06321 14.2665 2.01426 0.00186529 196.196
243 1 0.00824816 16.2994 0.0329127 0.000332069 196.196
245 1 1.98278 18.4225 -0.0194314 0.00371052 196.196
244 1 2.06619 16.3561 2.03648 0.00138734 196.196
241 1 0.0102676 18.3406 2.07201 0.00310322 196.196
247 1 4.09037 16.3492 -0.0091014 0.00123012 196.196
251 1 6.0921 18.3033 0.0262463 0.00334119 196.196
250 1 6.14388 16.2753 2.06578 0.0011138 196.196
249 1 4.08531 18.4105 2.01342 0.0028464 196.196
159 1 2.03367 14.2411 4.05287 0.00315196 196.196
701 1 0.0249797 14.3157 6.12112 0.000925274 196.196
168 1 6.1143 14.2123 4.02215 0.00369516 196.196
709 1 4.11965 14.2671 6.08609 0.00338632 196.196
242 1 0.0712423 16.3548 4.10552 7.14447e-05 196.196
246 1 2.1293 18.3619 4.10447 0.00565351 196.196
763 1 2.10228 16.3047 6.18857 0.00209971 196.196
761 1 0.0507192 18.4075 6.10444 0.0041994 196.196
248 1 4.08407 16.3543 4.0228 0.00206339 196.196
252 1 6.13049 18.4199 4.02371 0.00359057 196.196
767 1 6.17017 16.3206 6.07359 0.000937335 196.196
766 1 4.16077 18.3569 6.0621 0.00111023 196.196
176 1 10.2264 14.2897 0.00222793 0.00318361 196.196
172 1 8.16369 14.2459 2.01227 0.000598286 196.196
181 1 12.2644 14.2727 2.02497 0.00308866 196.196
253 1 8.15544 16.3382 -0.0729467 0.00352019 196.196
257 1 10.1957 18.3391 -0.00296751 0.000213896 196.196
256 1 10.2028 16.3008 2.02149 0.00129946 196.196
255 1 8.13089 18.3358 1.97306 0.00907129 196.196
259 1 12.2839 16.2902 -0.089298 0.00303584 196.196
261 1 12.2412 18.3909 2.02397 0.0031311 196.196
177 1 10.1917 14.2831 4.11139 0.00130039 196.196
715 1 8.14735 14.2454 6.09919 0.000995682 196.196
721 1 12.2454 14.3179 6.10455 0.00297135 196.196
254 1 8.13319 16.2939 4.06069 0.000812952 196.196
258 1 10.1676 18.3977 3.99563 0.0060409 196.196
771 1 10.223 16.3159 6.06576 0.00278654 196.196
770 1 8.15592 18.3602 6.08667 0.00305556 196.196
260 1 12.1884 16.3089 4.02275 0.0018661 196.196
774 1 12.2082 18.3344 6.10563 0.00120009 196.196
185 1 14.2713 14.2976 -0.0499197 0.0027186 196.196
194 1 18.342 14.3086 0.0613623 0.00349707 196.196
190 1 16.3175 14.3017 2.03665 0.00276326 196.196
263 1 14.2529 18.3429 -0.0343314 0.00216368 196.196
262 1 14.248 16.3297 2.00322 0.00416023 196.196
265 1 16.3522 16.2944 -0.0278243 0.00109812 196.196
269 1 18.327 18.3373 -0.0797893 0.00057297 196.196
268 1 18.3454 16.3724 2.05065 0.00163355 196.196
267 1 16.2383 18.3678 2.01567 0.00278198 196.196
186 1 14.2407 14.301 4.04723 0.00426137 196.196
195 1 18.3283 14.3815 4.12462 0.0040531 196.196
727 1 16.3132 14.3117 6.15409 0.00148935 196.196
264 1 14.1992 18.3503 4.11694 0.00164034 196.196
775 1 14.3098 16.3443 6.10811 0.000916707 196.196
266 1 16.3204 16.3503 4.04242 0.000438586 196.196
270 1 18.3556 18.3925 4.11782 0.00249819 196.196
779 1 18.3377 16.3794 6.09446 0.00224141 196.196
778 1 16.2261 18.423 6.13519 0.00439282 196.196
203 1 22.4823 14.2807 -0.0248256 0.0015249 196.196
199 1 20.4238 14.3128 2.06802 0.000909239 196.196
212 1 26.5906 14.2717 -0.0353606 0.00313276 196.196
208 1 24.48 14.3268 2.02278 0.00369481 196.196
271 1 20.4451 16.2813 0.012155 0.00716958 196.196
275 1 22.4794 18.3076 -0.0937978 0.00210966 196.196
274 1 22.4736 16.354 2.03293 0.00222947 196.196
273 1 20.4072 18.3569 1.96873 0.00373124 196.196
277 1 24.5014 16.3479 -0.00210829 0.00366841 196.196
281 1 26.5635 18.375 -0.0526795 0.00842856 196.196
280 1 26.5682 16.3034 1.99664 0.00322957 196.196
279 1 24.5649 18.3533 2.02326 0.00065467 196.196
204 1 22.4528 14.3738 4.096 0.00376789 196.196
733 1 20.3794 14.3492 6.16134 0.00013353 196.196
213 1 26.5429 14.249 4.12054 0.00820181 196.196
739 1 24.4689 14.2918 6.15506 0.00388632 196.196
272 1 20.4568 16.3496 4.01093 0.00647062 196.196
276 1 22.4754 18.3434 4.07781 0.000264144 196.196
783 1 22.4668 16.3848 6.14054 0.00415118 196.196
782 1 20.4322 18.3438 6.09259 0.00143271 196.196
278 1 24.5527 16.3116 4.09158 0.000694443 196.196
282 1 26.5104 18.3538 4.1155 0.000315249 196.196
787 1 26.5387 16.3101 6.10145 0.00239638 196.196
786 1 24.5678 18.344 6.13007 0.00319833 196.196
221 1 30.662 14.2666 -0.0146643 0.00512104 196.196
217 1 28.5511 14.2327 2.09571 0.00457698 196.196
226 1 32.6571 14.2407 2.01659 0.0028967 196.196
283 1 28.5535 16.311 -0.0534015 0.00592485 196.196
287 1 30.5945 18.3429 0.0428624 0.00332672 196.196
286 1 30.5922 16.2712 2.06437 0.000628848 196.196
285 1 28.5389 18.395 2.03271 0.00106337 196.196
289 1 32.6003 16.3197 -0.00391598 0.00571097 196.196
291 1 32.6325 18.3201 2.05232 0.00119758 196.196
222 1 30.5829 14.2339 4.15344 0.000941821 196.196
745 1 28.5329 14.3097 6.22443 0.00152495 196.196
751 1 32.5727 14.2322 6.11193 0.00269578 196.196
284 1 28.5991 16.3343 4.05209 0.00650734 196.196
288 1 30.6056 18.4036 4.1053 0.000335988 196.196
791 1 30.6505 16.3477 6.12674 0.00263759 196.196
790 1 28.5669 18.3715 6.11049 0.00364204 196.196
290 1 32.6953 16.2704 4.07796 0.00524171 196.196
794 1 32.667 18.292 6.07049 0.0139957 196.196
230 1 34.6601 14.3508 -0.00505901 0.00345517 196.196
239 1 38.7809 14.3052 0.0456635 0.000681058 196.196
235 1 36.7226 14.2697 2.0506 0.00263092 196.196
293 1 34.6524 18.3201 0.0435489 0.00177422 196.196
292 1 34.6681 16.3044 2.13088 0.000626381 196.196
295 1 36.7022 16.3469 0.0371822 0.0157876 196.196
299 1 38.79 18.3409 -0.00819802 0.000679394 196.196
298 1 38.7579 16.2863 2.03415 0.000865463 196.196
297 1 36.7322 18.3511 2.10667 0.00372293 196.196
231 1 34.6318 14.2637 4.11103 0.00871058 196.196
240 1 38.7422 14.3099 4.08429 0.000357379 196.196
757 1 36.6553 14.2033 6.05123 0.00207834 196.196
294 1 34.6952 18.3837 4.09025 0.00335774 196.196
795 1 34.7133 16.3055 6.1012 0.000372398 196.196
296 1 36.7454 16.3187 4.08915 0.00236262 196.196
300 1 38.7855 18.3629 4.12602 0.00202684 196.196
799 1 38.7747 16.3085 6.11439 0.00184518 196.196
798 1 36.7594 18.3423 6.1137 0.00115375 196.196
303 1 0.0222939 20.4155 0.00054436 0.00144644 196.196
305 1 2.00434 22.4703 -0.0128935 0.00214767 196.196
304 1 2.12438 20.4471 2.03544 0.00131141 196.196
302 1 0.0463774 22.4051 2.09605 0.00601074 196.196
307 1 4.08057 20.3985 -0.016488 0.00220375 196.196
311 1 6.09875 22.4074 -0.020081 0.00443701 196.196
310 1 6.10806 20.4194 2.05511 0.00519026 196.196
309 1 4.10598 22.4966 1.97682 0.00165722 196.196
365 1 -0.0096899 24.4565 0.0707333 0.000122289 196.196
367 1 2.02758 26.5443 -0.0471324 0.00204395 196.196
366 1 2.07804 24.5013 2.01371 0.000898487 196.196
361 1 -0.0141505 26.5251 2.04801 0.000858033 196.196
370 1 4.08673 24.4555 -0.00785168 0.00130539 196.196
376 1 6.06248 26.4825 0.0249827 0.00306915 196.196
375 1 6.07289 24.5071 2.04118 0.00194788 196.196
372 1 4.07216 26.5931 2.03319 0.00512662 196.196
301 1 0.0310113 20.3524 4.11869 0.00300096 196.196
306 1 2.05717 22.4655 4.0745 0.00930382 196.196
803 1 2.06547 20.4539 6.13616 0.00240678 196.196
801 1 0.013208 22.4848 6.15727 0.00190722 196.196
308 1 4.14271 20.4509 4.10644 0.000781677 196.196
312 1 6.13042 22.529 3.99854 0.00912613 196.196
807 1 6.13406 20.4994 6.11499 0.00018871 196.196
806 1 4.10038 22.4627 6.09005 0.000661744 196.196
364 1 -0.0278583 24.419 4.07345 0.00345393 196.196
368 1 1.99339 26.4732 4.03498 0.00119954 196.196
844 1 2.05539 24.5472 6.12935 0.00466735 196.196
841 1 -0.0252854 26.5474 6.12872 0.00448764 196.196
371 1 4.03534 24.4976 4.11211 0.00412574 196.196
377 1 6.15149 26.5005 4.113 0.002534 196.196
850 1 6.14054 24.4997 6.15933 0.00292591 196.196
848 1 4.05664 26.5179 6.1213 0.00904198 196.196
313 1 8.11799 20.3855 -0.0143608 0.00117596 196.196
317 1 10.1871 22.4047 -0.00575781 0.000984835 196.196
316 1 10.2333 20.3966 1.97483 0.00181652 196.196
315 1 8.18831 22.4644 2.00945 0.00140688 196.196
319 1 12.2027 20.4052 -0.0413151 0.000232719 196.196
321 1 12.2853 22.4488 2.01026 0.000243447 196.196
379 1 8.14222 24.4611 -0.0226751 0.000977018 196.196
385 1 10.2122 26.5163 -0.00820764 0.00638429 196.196
384 1 10.2017 24.5235 2.11273 0.00302337 196.196
381 1 8.15314 26.4998 2.04474 0.00155563 196.196
388 1 12.2178 24.4572 0.0151158 0.00172138 196.196
390 1 12.2198 26.5394 2.02486 0.00110401 196.196
314 1 8.16696 20.4517 4.06937 0.00162425 196.196
318 1 10.194 22.4457 4.0081 0.00311028 196.196
811 1 10.2073 20.4255 6.09651 0.00169299 196.196
810 1 8.17376 22.4816 6.10281 0.00545837 196.196
320 1 12.2332 20.3983 4.06435 0.00185844 196.196
814 1 12.205 22.4518 6.12104 0.00627951 196.196
380 1 8.13924 24.5349 4.10502 0.00157208 196.196
386 1 10.2626 26.525 4.10669 0.00176523 196.196
856 1 10.2122 24.4374 6.07401 0.00222538 196.196
854 1 8.16957 26.4695 6.09905 0.00285427 196.196
389 1 12.3082 24.5055 4.07129 0.000732086 196.196
860 1 12.1959 26.5009 6.11586 0.00176188 196.196
323 1 14.2556 22.4512 -0.0391357 0.000304129 196.196
322 1 14.252 20.3964 1.92582 0.0014292 196.196
325 1 16.3496 20.4497 -0.0152765 0.00252954 196.196
329 1 18.4043 22.4614 -0.0233643 0.00274935 196.196
328 1 18.4122 20.3852 1.98894 0.00285147 196.196
327 1 16.3092 22.4473 2.02534 0.000937213 196.196
394 1 14.2858 26.4746 0.0207635 0.00174807 196.196
393 1 14.3074 24.4353 1.99843 0.00378651 196.196
397 1 16.3095 24.4452 0.0328043 0.00330712 196.196
403 1 18.2938 26.5387 0.0280406 0.00253599 196.196
402 1 18.364 24.4223 2.03399 0.00165866 196.196
399 1 16.2947 26.5169 2.00323 0.00143544 196.196
324 1 14.2443 22.4129 4.06426 0.00771645 196.196
815 1 14.2774 20.4622 6.07104 0.00160198 196.196
326 1 16.2875 20.4288 4.03112 0.00715182 196.196
330 1 18.2881 22.4671 4.05401 0.00156618 196.196
819 1 18.3026 20.4191 6.1382 0.0025924 196.196
818 1 16.2684 22.4126 6.12906 0.000592824 196.196
395 1 14.3066 26.481 4.02606 0.00660736 196.196
862 1 14.2413 24.4659 6.09829 0.0021443 196.196
398 1 16.2972 24.4371 4.07359 0.00146287 196.196
404 1 18.3087 26.4809 4.07151 0.000570987 196.196
868 1 18.3493 24.4374 6.12016 0.0111159 196.196
866 1 16.3234 26.4626 6.0898 0.00301151 196.196
331 1 20.4313 20.4011 -0.0261197 0.00185044 196.196
335 1 22.4367 22.4534 -0.0224453 2.02712e-05 196.196
334 1 22.5426 20.2998 1.99167 0.00190804 196.196
333 1 20.47 22.4153 1.98141 0.000644869 196.196
337 1 24.5305 20.4173 -0.0503391 0.00276451 196.196
341 1 26.5976 22.4564 -0.0224536 0.00202902 196.196
340 1 26.537 20.449 2.05739 0.000953534 196.196
339 1 24.5422 22.5108 1.94774 0.0036405 196.196
406 1 20.4092 24.5674 0.0127104 0.00201817 196.196
412 1 22.3705 26.5343 -0.0183585 0.000921339 196.196
411 1 22.4449 24.4274 2.02621 0.00259075 196.196
408 1 20.357 26.5342 2.01644 0.00602808 196.196
415 1 24.4528 24.5256 -0.0520404 0.00341677 196.196
421 1 26.4957 26.5646 0.0105411 0.00439433 196.196
420 1 26.465 24.5705 2.05542 0.000411282 196.196
417 1 24.432 26.5228 2.02822 0.000360952 196.196
332 1 20.4015 20.3957 4.06309 0.00194208 196.196
336 1 22.4451 22.438 4.0721 0.000927024 196.196
823 1 22.5231 20.362 6.09123 0.00217087 196.196
822 1 20.3953 22.3997 6.11176 0.000670355 196.196
338 1 24.474 20.4617 4.01398 0.00148 196.196
342 1 26.5157 22.4554 4.10614 0.00286137 196.196
827 1 26.501 20.3957 6.11642 0.00632651 196.196
826 1 24.4743 22.4646 6.03698 0.00265451 196.196
407 1 20.3715 24.4382 4.05622 0.00687515 196.196
413 1 22.4238 26.456 4.02011 0.00147473 196.196
874 1 22.4803 24.4854 6.1148 0.0045209 196.196
872 1 20.3814 26.4411 6.10558 0.00200078 196.196
416 1 24.4845 24.4946 4.03271 0.00483974 196.196
422 1 26.5271 26.5018 4.09657 0.00248319 196.196
880 1 26.4979 24.4201 6.12734 0.000659339 196.196
878 1 24.4353 26.5346 6.08205 0.0108068 196.196
343 1 28.6508 20.4096 -0.0318439 0.00460027 196.196
347 1 30.6079 22.4121 0.0275785 0.00184632 196.196
346 1 30.5907 20.3984 2.11938 0.00301009 196.196
345 1 28.5556 22.4859 2.02436 0.0022295 196.196
349 1 32.6255 20.3631 -0.0253097 0.00289851 196.196
351 1 32.6764 22.3514 2.05899 0.00183959 196.196
424 1 28.552 24.4924 0.0053197 0.00237797 196.196
430 1 30.5737 26.504 -0.012895 0.00676509 196.196
429 1 30.6057 24.4911 2.10539 0.00178116 196.196
426 1 28.5265 26.5375 2.01337 0.00392003 196.196
433 1 32.5559 24.4852 0.0396972 0.000972272 196.196
435 1 32.6802 26.4752 2.10722 0.00343747 196.196
344 1 28.518 20.4425 4.09035 0.00317758 196.196
348 1 30.566 22.4452 4.06414 0.000374713 196.196
831 1 30.6125 20.4271 6.18693 0.00203844 196.196
830 1 28.5302 22.4689 6.1336 0.000755019 196.196
350 1 32.7008 20.3648 4.09617 0.00175994 196.196
834 1 32.6586 22.3699 6.09259 0.00135953 196.196
425 1 28.5471 24.4985 4.12448 0.00337675 196.196
431 1 30.5686 26.5575 4.11351 0.00295206 196.196
886 1 30.6197 24.5246 6.18297 0.00270321 196.196
884 1 28.5544 26.5658 6.10678 0.000410612 196.196
434 1 32.6408 24.4355 4.15553 0.000812777 196.196
890 1 32.6547 26.5136 6.12926 0.00239828 196.196
353 1 34.6569 22.383 0.008274 0.00104872 196.196
352 1 34.6906 20.3612 2.04201 0.00292215 196.196
355 1 36.7728 20.3407 0.0342322 0.00675546 196.196
359 1 38.7271 22.4129 -0.0249724 0.00348554 196.196
358 1 38.8104 20.4032 2.01833 0.00235967 196.196
357 1 36.7534 22.413 2.10566 0.00305744 196.196
439 1 34.6528 26.4817 0.0375984 0.00259233 196.196
438 1 34.6549 24.4301 2.00521 0.00215298 196.196
442 1 36.6917 24.4978 0.0793572 0.00159926 196.196
448 1 38.7313 26.5111 0.105342 0.00179589 196.196
447 1 38.7959 24.4265 2.03067 0.0055136 196.196
444 1 36.7282 26.4517 2.10898 0.00287738 196.196
354 1 34.7039 22.4062 4.1015 0.000144005 196.196
835 1 34.7357 20.3747 6.15709 0.00334581 196.196
356 1 36.7398 20.3827 4.15161 0.000875993 196.196
360 1 38.7879 22.4327 4.10091 0.00854357 196.196
839 1 38.7513 20.4781 6.17448 0.00164774 196.196
838 1 36.7546 22.4605 6.11544 0.00144073 196.196
440 1 34.7168 26.5009 4.07817 0.00922833 196.196
892 1 34.6724 24.4763 6.16293 0.00196162 196.196
443 1 36.7346 24.4527 4.10081 0.00315927 196.196
449 1 38.7836 26.552 4.05384 0.000171916 196.196
898 1 38.7566 24.5285 6.15149 0.00251994 196.196
896 1 36.7089 26.4936 6.08156 0.00650937 196.196
363 1 -0.0157624 28.576 0.039813 0.0113505 196.196
454 1 2.02849 30.6372 -0.0076402 0.00308178 196.196
369 1 2.0107 28.567 2.06718 0.00191694 196.196
452 1 0.0402967 30.6354 2.03966 0.000299137 196.196
373 1 4.02333 28.5799 -0.037492 0.00174765 196.196
460 1 6.08946 30.6145 5.13675e-05 0.000945274 196.196
378 1 6.09396 28.5682 2.04732 0.00263278 196.196
457 1 4.05838 30.6326 2.0388 0.00486983 196.196
453 1 0.0363161 32.7237 0.0470616 0.0019062 196.196
456 1 2.03924 32.6464 2.1075 0.00311776 196.196
458 1 4.03711 32.5971 0.0165025 0.00966406 196.196
462 1 6.10219 32.6348 2.03181 0.00251417 196.196
362 1 0.0243347 28.5716 4.11775 0.00135081 196.196
455 1 2.05297 30.5404 4.07083 0.00119233 196.196
846 1 2.07289 28.5467 6.15654 0.000209383 196.196
901 1 -0.0141326 30.6031 6.10974 0.00249946 196.196
374 1 4.13362 28.5157 4.06651 0.00142874 196.196
461 1 6.1974 30.5359 4.11476 0.00083862 196.196
852 1 6.10899 28.516 6.13838 0.00637184 196.196
905 1 4.05202 30.5631 6.12555 0.00163739 196.196
451 1 0.0414458 32.5744 4.09563 0.00652473 196.196
904 1 2.09049 32.6214 6.19676 0.00265253 196.196
459 1 4.08247 32.5858 4.07572 0.000984494 196.196
908 1 6.15763 32.6324 6.14412 0.000165545 196.196
382 1 8.21043 28.557 0.0552208 0.00122063 196.196
466 1 10.1752 30.6108 0.0601839 0.000921638 196.196
387 1 10.2606 28.5966 2.06958 0.00832204 196.196
463 1 8.10689 30.5918 2.0357 0.00139528 196.196
391 1 12.2827 28.5929 -0.0181882 0.00507024 196.196
469 1 12.2869 30.5879 2.01487 0.00206823 196.196
464 1 8.14474 32.6356 -0.00199419 0.00137578 196.196
468 1 10.2187 32.6164 2.06555 0.00444368 196.196
470 1 12.2408 32.636 0.0147163 0.00345536 196.196
383 1 8.19372 28.5035 4.09221 0.000732451 196.196
467 1 10.2221 30.6255 4.08918 0.00271014 196.196
858 1 10.2006 28.5348 6.09905 0.0046192 196.196
909 1 8.25095 30.5805 6.1192 7.42134e-05 196.196
392 1 12.2385 28.5547 4.13766 0.00146794 196.196
913 1 12.2627 30.5931 6.10612 0.00218989 196.196